<?xml version="1.0" encoding="UTF-8"?>

<!-- generated on 2021-07-16 19:42:29 by Eclipse SUMO GUI Version 1.9.2
<configuration xmlns:xsi="http://www.w3.org/2001/XMLSchema-instance" xsi:noNamespaceSchemaLocation="http://sumo.dlr.de/xsd/sumoConfiguration.xsd">

    <input>
        <net-file value="intelligent_traffic22.net.xml"/>
        <route-files value="intelligent_traffic22.rou.xml"/>
    </input>

    <output>
        <tripinfo-output value="intelligent_lights_output_file.xml"/>
    </output>

    <time>
        <begin value="0"/>
        <end value="15000"/>
        <step-length value="0.01"/>
    </time>

    <report>
        <verbose value="true"/>
        <duration-log.statistics value="true"/>
    </report>

    <traci_server>
        <remote-port value="54603"/>
    </traci_server>

    <gui_only>
        <gui-settings-file value="intelligent_traffic.gui.xml"/>
        <start value="true"/>
        <tracker-interval value="0.01"/>
    </gui_only>

</configuration>
-->

<detector xmlns:xsi="http://www.w3.org/2001/XMLSchema-instance" xsi:noNamespaceSchemaLocation="http://sumo.dlr.de/xsd/det_e1_file.xsd">
    <interval begin="0.00" end="7.13" id="TLSjunction_0_InductLoopOn_end1_junction_0" nVehContrib="0" flow="0.00" occupancy="0.00" speed="-1.00" harmonicMeanSpeed="-1.00" length="-1.00" nVehEntered="0"/>
    <interval begin="0.00" end="7.13" id="TLSjunction_0_InductLoopOn_end1_junction_1" nVehContrib="0" flow="0.00" occupancy="0.00" speed="-1.00" harmonicMeanSpeed="-1.00" length="-1.00" nVehEntered="0"/>
    <interval begin="0.00" end="7.13" id="TLSjunction_0_InductLoopOn_end1_junction_2" nVehContrib="0" flow="0.00" occupancy="0.00" speed="-1.00" harmonicMeanSpeed="-1.00" length="-1.00" nVehEntered="0"/>
    <interval begin="0.00" end="7.13" id="TLSjunction_0_InductLoopOn_end2_junction_0" nVehContrib="0" flow="0.00" occupancy="0.00" speed="-1.00" harmonicMeanSpeed="-1.00" length="-1.00" nVehEntered="0"/>
    <interval begin="0.00" end="7.13" id="TLSjunction_0_InductLoopOn_end2_junction_1" nVehContrib="0" flow="0.00" occupancy="0.00" speed="-1.00" harmonicMeanSpeed="-1.00" length="-1.00" nVehEntered="0"/>
    <interval begin="0.00" end="7.13" id="TLSjunction_0_InductLoopOn_end2_junction_2" nVehContrib="0" flow="0.00" occupancy="0.00" speed="-1.00" harmonicMeanSpeed="-1.00" length="-1.00" nVehEntered="0"/>
    <interval begin="0.00" end="7.13" id="TLSjunction_0_InductLoopOn_end3_junction_0" nVehContrib="0" flow="0.00" occupancy="0.00" speed="-1.00" harmonicMeanSpeed="-1.00" length="-1.00" nVehEntered="0"/>
    <interval begin="0.00" end="7.13" id="TLSjunction_0_InductLoopOn_end3_junction_1" nVehContrib="0" flow="0.00" occupancy="0.00" speed="-1.00" harmonicMeanSpeed="-1.00" length="-1.00" nVehEntered="0"/>
    <interval begin="0.00" end="7.13" id="TLSjunction_0_InductLoopOn_end3_junction_2" nVehContrib="0" flow="0.00" occupancy="0.00" speed="-1.00" harmonicMeanSpeed="-1.00" length="-1.00" nVehEntered="0"/>
    <interval begin="0.00" end="7.13" id="TLSjunction_0_InductLoopOn_end4_junction_0" nVehContrib="0" flow="0.00" occupancy="0.00" speed="-1.00" harmonicMeanSpeed="-1.00" length="-1.00" nVehEntered="0"/>
    <interval begin="0.00" end="7.13" id="TLSjunction_0_InductLoopOn_end4_junction_1" nVehContrib="0" flow="0.00" occupancy="0.00" speed="-1.00" harmonicMeanSpeed="-1.00" length="-1.00" nVehEntered="0"/>
    <interval begin="0.00" end="7.13" id="TLSjunction_0_InductLoopOn_end4_junction_2" nVehContrib="0" flow="0.00" occupancy="0.00" speed="-1.00" harmonicMeanSpeed="-1.00" length="-1.00" nVehEntered="0"/>
</detector>
